20
../../../../MP_files/AA/opt.log	Energy: -429855.9622939
C          1.88857       -0.93690       -0.04032
O          0.67424       -1.37596        0.40914
C         -0.19695       -0.24757        0.63979
C          0.65386        0.94658        0.30162
C          1.85566        0.52267       -0.10690
H         -0.45370       -0.25077        1.70698
O          2.81199       -1.65790       -0.31547
O          2.91348        1.26662       -0.50252
H          3.63804        0.66019       -0.71584
O          0.16809        2.19376        0.44902
H          0.84548        2.83609        0.19923
C         -1.47018       -0.40910       -0.19893
H         -1.19701       -0.40724       -1.25703
O         -2.08059       -1.68095        0.02311
H         -2.05820       -1.89531        0.96292
C         -2.50002        0.69275        0.06349
H         -2.10922        1.67012       -0.21588
H         -2.73727        0.71610        1.13941
O         -3.66574        0.47026       -0.70719
H         -3.88552       -0.46630       -0.62101
