3
H20.log	Energy:  -47978.8128817
O         -0.00000       -0.00000        0.11704
H         -0.00000        0.76349       -0.46815
H         -0.00000       -0.76349       -0.46815
