4
../../../../MP_files/H3O/opt.log	Energy:  -48150.2441366
O          0.00000       -0.00000        0.06914
H         -0.00000        0.94693       -0.18436
H         -0.82007       -0.47347       -0.18436
H          0.82007       -0.47347       -0.18436
