19
../../../../MP_files/HA/opt.log	Energy: -429534.9127348
C          1.90160       -0.91801       -0.03957
O          0.63094       -1.33655        0.45764
C         -0.19322       -0.17632        0.67880
C          0.67313        1.02665        0.31116
C          1.88408        0.49699       -0.09996
H         -0.47514       -0.15636        1.73792
O          2.73339       -1.76324       -0.31089
O          2.94771        1.26645       -0.53537
H          2.61395        2.17348       -0.48542
O          0.30352        2.22815        0.37130
C         -1.43840       -0.32586       -0.18810
H         -1.14235       -0.22976       -1.24106
O         -2.02776       -1.62399        0.01372
H         -1.28838       -2.24655        0.00310
C         -2.51621        0.69313        0.12984
H         -2.15077        1.69527       -0.09016
H         -2.75825        0.63529        1.20013
O         -3.69102        0.45949       -0.65345
H         -3.83918       -0.49338       -0.62116
