65
../../../../RE/nN/nN_totflat.log	Energy: -1146653.0517642
C          5.59868       -3.35572       -1.21481
C          4.78689       -2.24371       -1.06415
C          3.59311       -2.32265       -0.33390
C          3.24267       -3.53549        0.27059
C          4.05701       -4.65079        0.13788
C          5.23599       -4.56910       -0.61289
H          6.51281       -3.29573       -1.79119
H          5.06779       -1.30001       -1.51122
H          2.34159       -3.61377        0.86225
H          3.78640       -5.58453        0.61319
C          6.07341       -5.71819       -0.75926
N          6.75219       -6.64534       -0.87778
C          2.76485       -1.10169       -0.18828
C          1.35129       -1.11642       -0.21078
N          3.44505        0.03970       -0.06023
C          0.63838        0.09021       -0.05452
C          2.80657        1.19924        0.10889
C          1.39469        1.26773        0.12155
C          0.63726       -2.31714       -0.50780
N          0.06998       -3.29018       -0.76364
C          0.72155        2.51489        0.29602
N          0.18454        3.52704        0.44186
C          3.68205        2.38671        0.26627
C          4.83260        2.47916       -0.52874
C          3.42045        3.38879        1.20729
C          5.68741        3.56273       -0.41255
H          5.04605        1.69219       -1.23933
C          4.28002        4.46990        1.34210
H          2.55571        3.32478        1.85226
C          5.41374        4.56737        0.52663
H          6.56718        3.63926       -1.03834
H          4.07887        5.23863        2.07671
C          6.29576        5.68477        0.65554
N          7.01033        6.58658        0.75821
C         -0.83592        0.11850       -0.09525
C         -1.50143        0.97830       -0.99407
C         -1.57383       -0.71408        0.75185
C         -2.88442        1.02881       -1.06181
H         -0.92122        1.60142       -1.66225
C         -2.96208       -0.66762        0.71422
H         -1.06952       -1.37902        1.44197
C         -3.60932        0.21390       -0.19229
H         -3.38047        1.67943       -1.76946
C         -4.00380       -1.37235        1.43080
C         -5.23844       -0.89068        0.93109
C         -3.99840       -2.34184        2.43588
C         -6.45879       -1.34375        1.42718
C         -5.21203       -2.80663        2.92799
H         -3.06275       -2.72557        2.82561
C         -6.42582       -2.30775        2.42987
H         -7.39722       -0.95823        1.05067
H         -5.22471       -3.55982        3.70628
H         -7.35956       -2.67980        2.83472
N         -4.98232        0.07123       -0.05372
C         -5.96640        0.78985       -0.78548
C         -5.99171        2.18372       -0.73108
C         -6.90169        0.09761       -1.55513
C         -6.95064        2.88433       -1.45743
H         -5.26887        2.70660       -0.11697
C         -7.86820        0.80441       -2.26502
H         -6.85963       -0.98365       -1.59881
C         -7.89242        2.19741       -2.22147
H         -6.96859        3.96689       -1.41597
H         -8.59470        0.26626       -2.86221
H         -8.64172        2.74503       -2.78038
