13
THF.log	Energy: -145917.4640443
C          0.73311        0.99452        0.22774
C         -0.73270        0.99484       -0.22759
C         -1.16870       -0.42779        0.13196
C          1.16849       -0.42817       -0.13229
H          1.34070        1.75673       -0.26321
H          0.79487        1.15115        1.30860
H         -0.79441        1.15189       -1.30844
H         -1.34005        1.75712        0.26355
H         -1.52969       -0.48108        1.16700
H         -1.94671       -0.82190       -0.52617
H          1.94679       -0.82260        0.52531
H          1.52875       -0.48136       -1.16755
O         -0.00019       -1.25130        0.00024
